<?xml version="1.0"?>
<VTKFile type="UnstructuredGrid">
  <UnstructuredGrid>
    <Piece NumberOfPoints="1248" NumberOfCells="156">
      <Points>
        <DataArray type="Float64" NumberOfComponents="3">
          358000.0 6981000.0 199.0 
          358200.0 6981000.0 199.0 
          358000.0 6981200.0 199.0 
          358200.0 6981200.0 199.0 
          358000.0 6981000.0 298.7699890136719 
          358200.0 6981000.0 298.7699890136719 
          358000.0 6981200.0 298.7699890136719 
          358200.0 6981200.0 298.7699890136719 
          358400.0 6980800.0 166.0 
          358600.0 6980800.0 166.0 
          358400.0 6981000.0 166.0 
          358600.0 6981000.0 166.0 
          358400.0 6980800.0 293.7640075683594 
          358600.0 6980800.0 293.7640075683594 
          358400.0 6981000.0 293.7640075683594 
          358600.0 6981000.0 293.7640075683594 
          355200.0 6980600.0 79.0 
          355400.0 6980600.0 79.0 
          355200.0 6980800.0 79.0 
          355400.0 6980800.0 79.0 
          355200.0 6980600.0 278.2099914550781 
          355400.0 6980600.0 278.2099914550781 
          355200.0 6980800.0 278.2099914550781 
          355400.0 6980800.0 278.2099914550781 
          359400.0 6980600.0 55.0 
          359600.0 6980600.0 55.0 
          359400.0 6980800.0 55.0 
          359600.0 6980800.0 55.0 
          359400.0 6980600.0 298.239013671875 
          359600.0 6980600.0 298.239013671875 
          359400.0 6980800.0 298.239013671875 
          359600.0 6980800.0 298.239013671875 
          358400.0 6980200.0 109.0 
          358600.0 6980200.0 109.0 
          358400.0 6980400.0 109.0 
          358600.0 6980400.0 109.0 
          358400.0 6980200.0 294.3280029296875 
          358600.0 6980200.0 294.3280029296875 
          358400.0 6980400.0 294.3280029296875 
          358600.0 6980400.0 294.3280029296875 
          359200.0 6980200.0 66.0 
          359400.0 6980200.0 66.0 
          359200.0 6980400.0 66.0 
          359400.0 6980400.0 66.0 
          359200.0 6980200.0 299.41900634765625 
          359400.0 6980200.0 299.41900634765625 
          359200.0 6980400.0 299.41900634765625 
          359400.0 6980400.0 299.41900634765625 
          353800.0 6980000.0 42.0 
          354000.0 6980000.0 42.0 
          353800.0 6980200.0 42.0 
          354000.0 6980200.0 42.0 
          353800.0 6980000.0 271.5769958496094 
          354000.0 6980000.0 271.5769958496094 
          353800.0 6980200.0 271.5769958496094 
          354000.0 6980200.0 271.5769958496094 
          354200.0 6980000.0 36.0 
          354400.0 6980000.0 36.0 
          354200.0 6980200.0 36.0 
          354400.0 6980200.0 36.0 
          354200.0 6980000.0 274.00299072265625 
          354400.0 6980000.0 274.00299072265625 
          354200.0 6980200.0 274.00299072265625 
          354400.0 6980200.0 274.00299072265625 
          354600.0 6980000.0 45.0 
          354800.0 6980000.0 45.0 
          354600.0 6980200.0 45.0 
          354800.0 6980200.0 45.0 
          354600.0 6980000.0 274.385009765625 
          354800.0 6980000.0 274.385009765625 
          354600.0 6980200.0 274.385009765625 
          354800.0 6980200.0 274.385009765625 
          357000.0 6980000.0 146.0 
          357200.0 6980000.0 146.0 
          357000.0 6980200.0 146.0 
          357200.0 6980200.0 146.0 
          357000.0 6980000.0 287.35101318359375 
          357200.0 6980000.0 287.35101318359375 
          357000.0 6980200.0 287.35101318359375 
          357200.0 6980200.0 287.35101318359375 
          357800.0 6980000.0 170.0 
          358000.0 6980000.0 170.0 
          357800.0 6980200.0 170.0 
          358000.0 6980200.0 170.0 
          357800.0 6980000.0 291.3299865722656 
          358000.0 6980000.0 291.3299865722656 
          357800.0 6980200.0 291.3299865722656 
          358000.0 6980200.0 291.3299865722656 
          358200.0 6980000.0 129.0 
          358400.0 6980000.0 129.0 
          358200.0 6980200.0 129.0 
          358400.0 6980200.0 129.0 
          358200.0 6980000.0 294.26800537109375 
          358400.0 6980000.0 294.26800537109375 
          358200.0 6980200.0 294.26800537109375 
          358400.0 6980200.0 294.26800537109375 
          358800.0 6980000.0 72.0 
          359000.0 6980000.0 72.0 
          358800.0 6980200.0 72.0 
          359000.0 6980200.0 72.0 
          358800.0 6980000.0 295.4010009765625 
          359000.0 6980000.0 295.4010009765625 
          358800.0 6980200.0 295.4010009765625 
          359000.0 6980200.0 295.4010009765625 
          356400.0 6979800.0 139.0 
          356600.0 6979800.0 139.0 
          356400.0 6980000.0 139.0 
          356600.0 6980000.0 139.0 
          356400.0 6979800.0 285.7330017089844 
          356600.0 6979800.0 285.7330017089844 
          356400.0 6980000.0 285.7330017089844 
          356600.0 6980000.0 285.7330017089844 
          353400.0 6979600.0 18.0 
          353600.0 6979600.0 18.0 
          353400.0 6979800.0 18.0 
          353600.0 6979800.0 18.0 
          353400.0 6979600.0 268.4849853515625 
          353600.0 6979600.0 268.4849853515625 
          353400.0 6979800.0 268.4849853515625 
          353600.0 6979800.0 268.4849853515625 
          353600.0 6979600.0 20.0 
          353800.0 6979600.0 20.0 
          353600.0 6979800.0 20.0 
          353800.0 6979800.0 20.0 
          353600.0 6979600.0 269.94500732421875 
          353800.0 6979600.0 269.94500732421875 
          353600.0 6979800.0 269.94500732421875 
          353800.0 6979800.0 269.94500732421875 
          354400.0 6979600.0 94.0 
          354600.0 6979600.0 94.0 
          354400.0 6979800.0 94.0 
          354600.0 6979800.0 94.0 
          354400.0 6979600.0 274.135009765625 
          354600.0 6979600.0 274.135009765625 
          354400.0 6979800.0 274.135009765625 
          354600.0 6979800.0 274.135009765625 
          359800.0 6979600.0 142.0 
          360000.0 6979600.0 142.0 
          359800.0 6979800.0 142.0 
          360000.0 6979800.0 142.0 
          359800.0 6979600.0 301.29901123046875 
          360000.0 6979600.0 301.29901123046875 
          359800.0 6979800.0 301.29901123046875 
          360000.0 6979800.0 301.29901123046875 
          352400.0 6979400.0 114.0 
          352600.0 6979400.0 114.0 
          352400.0 6979600.0 114.0 
          352600.0 6979600.0 114.0 
          352400.0 6979400.0 264.1659851074219 
          352600.0 6979400.0 264.1659851074219 
          352400.0 6979600.0 264.1659851074219 
          352600.0 6979600.0 264.1659851074219 
          352600.0 6979400.0 85.0 
          352800.0 6979400.0 85.0 
          352600.0 6979600.0 85.0 
          352800.0 6979600.0 85.0 
          352600.0 6979400.0 264.5840148925781 
          352800.0 6979400.0 264.5840148925781 
          352600.0 6979600.0 264.5840148925781 
          352800.0 6979600.0 264.5840148925781 
          353400.0 6979400.0 16.0 
          353600.0 6979400.0 16.0 
          353400.0 6979600.0 16.0 
          353600.0 6979600.0 16.0 
          353400.0 6979400.0 266.45599365234375 
          353600.0 6979400.0 266.45599365234375 
          353400.0 6979600.0 266.45599365234375 
          353600.0 6979600.0 266.45599365234375 
          357800.0 6979400.0 195.0 
          358000.0 6979400.0 195.0 
          357800.0 6979600.0 195.0 
          358000.0 6979600.0 195.0 
          357800.0 6979400.0 294.54400634765625 
          358000.0 6979400.0 294.54400634765625 
          357800.0 6979600.0 294.54400634765625 
          358000.0 6979600.0 294.54400634765625 
          352200.0 6979200.0 134.0 
          352400.0 6979200.0 134.0 
          352200.0 6979400.0 134.0 
          352400.0 6979400.0 134.0 
          352200.0 6979200.0 264.1659851074219 
          352400.0 6979200.0 264.1659851074219 
          352200.0 6979400.0 264.1659851074219 
          352400.0 6979400.0 264.1659851074219 
          352800.0 6979200.0 65.0 
          353000.0 6979200.0 65.0 
          352800.0 6979400.0 65.0 
          353000.0 6979400.0 65.0 
          352800.0 6979200.0 264.7049865722656 
          353000.0 6979200.0 264.7049865722656 
          352800.0 6979400.0 264.7049865722656 
          353000.0 6979400.0 264.7049865722656 
          356400.0 6979200.0 185.0 
          356600.0 6979200.0 185.0 
          356400.0 6979400.0 185.0 
          356600.0 6979400.0 185.0 
          356400.0 6979200.0 284.99200439453125 
          356600.0 6979200.0 284.99200439453125 
          356400.0 6979400.0 284.99200439453125 
          356600.0 6979400.0 284.99200439453125 
          358200.0 6979200.0 140.0 
          358400.0 6979200.0 140.0 
          358200.0 6979400.0 140.0 
          358400.0 6979400.0 140.0 
          358200.0 6979200.0 296.2820129394531 
          358400.0 6979200.0 296.2820129394531 
          358200.0 6979400.0 296.2820129394531 
          358400.0 6979400.0 296.2820129394531 
          360200.0 6979200.0 33.0 
          360400.0 6979200.0 33.0 
          360200.0 6979400.0 33.0 
          360400.0 6979400.0 33.0 
          360200.0 6979200.0 304.125 
          360400.0 6979200.0 304.125 
          360200.0 6979400.0 304.125 
          360400.0 6979400.0 304.125 
          352800.0 6979000.0 64.0 
          353000.0 6979000.0 64.0 
          352800.0 6979200.0 64.0 
          353000.0 6979200.0 64.0 
          352800.0 6979000.0 264.0090026855469 
          353000.0 6979000.0 264.0090026855469 
          352800.0 6979200.0 264.0090026855469 
          353000.0 6979200.0 264.0090026855469 
          359800.0 6979000.0 191.0 
          360000.0 6979000.0 191.0 
          359800.0 6979200.0 191.0 
          360000.0 6979200.0 191.0 
          359800.0 6979000.0 301.8609924316406 
          360000.0 6979000.0 301.8609924316406 
          359800.0 6979200.0 301.8609924316406 
          360000.0 6979200.0 301.8609924316406 
          361200.0 6978600.0 85.0 
          361400.0 6978600.0 85.0 
          361200.0 6978800.0 85.0 
[...]
      <CellData Scalars="scalars">
        <DataArray type="Float64" Name="flux" format="ascii">
           -3536.45947265625 -3536.45947265625 -2309.524658203125 -3536.45947265625 -3536.45947265625 -3536.45947265625 -7689.60009765625 -2309.524658203125 -2309.524658203125 -3536.45947265625 -3536.45947265625 -3536.45947265625 -3536.45947265625 -3536.45947265625 0.0 0.0 -2309.524658203125 -3536.45947265625 -4619.04931640625 -2309.524658203125 0.0 -3536.45947265625 -2309.524658203125 0.0 -3536.45947265625 -3536.45947265625 -3536.45947265625 0.0 -3536.45947265625 -3536.45947265625 -3536.45947265625 -2309.524658203125 -2309.524658203125 -2413.7333984375 -2309.524658203125 -1490.2332763671875 -7072.9189453125 -2309.524658203125 -4619.04931640625 -2309.524658203125 -2309.524658203125 -2309.524658203125 -2309.524658203125 -2309.524658203125 -2309.524658203125 -3536.45947265625 -2309.524658203125 -3536.45947265625 -3536.45947265625 -2309.524658203125 -2309.524658203125 -2309.524658203125 -3536.45947265625 -2309.524658203125 -2309.524658203125 -2309.524658203125 -2309.524658203125 -2309.524658203125 -2309.524658203125 -2309.524658203125 -2309.524658203125 -2309.524658203125 -2309.524658203125 -3536.45947265625 -3536.45947265625 -2309.524658203125 -2309.524658203125 -2309.524658203125 0.0 -2309.524658203125 -2309.524658203125 -2309.524658203125 0.0 -3536.45947265625 -2309.524658203125 -2309.524658203125 -2309.524658203125 0.0 -3536.45947265625 -3536.45947265625 -3536.45947265625 -2309.524658203125 -3536.45947265625 -2309.524658203125 -2309.524658203125 -4619.04931640625 -3157.294677734375 -666.6666259765625 -2309.524658203125 -3157.294677734375 -3936.7001953125 -3157.294677734375 -826.1000366210938 -6423.799560546875 -2678.39990234375 -2955.93310546875 -1406.56689453125 -2081.967041015625 -1330.973876953125 -2140.699951171875 -1958.5670166015625 -1122.2996826171875 -585.3333129882812 -551.0333862304688 -1472.7769775390625 -2012.0892333984375 -3157.294677734375 -3157.294677734375 -2513.999755859375 -3954.90478515625 0.0 -2337.571044921875 -1033.999755859375 -2661.666259765625 -2337.571044921875 -2337.571044921875 -2337.571044921875 -2337.571044921875 -2337.571044921875 -2337.571044921875 -4675.14208984375 -2337.571044921875 -2337.571044921875 -2337.571044921875 -2337.571044921875 -2337.571044921875 -2337.571044921875 -2337.571044921875 -2337.571044921875 -2337.571044921875 -2337.571044921875 -2337.571044921875 -2337.571044921875 -2337.571044921875 -2337.571044921875 -2800.232421875 -2800.232421875 -2800.232421875 -2800.232421875 -2800.232421875 -2800.232421875 -2800.232421875 -2800.232421875 -2800.232421875 -2800.232421875 -2800.232421875 -2800.232421875 -2800.232421875 -2800.232421875 -2800.232421875 -2800.232421875 -2800.232421875 -2800.232421875 -2800.232421875 -2800.232421875 -2800.232421875
        </DataArray>
      </CellData>
    </Piece>
  </UnstructuredGrid>
</VTKFile>
